# vtk DataFile Version 5.1
vtk output
ASCII
DATASET POLYDATA
POINTS 12 float
0.5 0.5 0 0.5 -0.5 0 0.25 -0.5 -0.433013 
0.25 0.5 -0.433013 -0.25 -0.5 -0.433013 -0.25 0.5 -0.433013 
-0.5 -0.5 -6.12323e-17 -0.5 0.5 -6.12323e-17 -0.25 -0.5 0.433013 
-0.25 0.5 0.433013 0.25 -0.5 0.433013 0.25 0.5 0.433013 

POLYGONS 10 38
OFFSETS vtktypeint64
0 4 8 12 16 20 23 26 32 38 

CONNECTIVITY vtktypeint64
0 1 2 3
3 2 4 5
5 4 6 7
7 6 8 9
9 8 10 11
11 10 1
0 11 1
0 3 5 7 9 11
10 8 6 4 2 1 

POINT_DATA 12
SCALARS PerlinNoise float
LOOKUP_TABLE default
0.0813812 0.140602 0.0801887 -0.082784 0.200801 0.093239 -0.149993 0.228622 -0.25858 
-0.0276409 -0.248835 -0.202287 
