# vtk DataFile Version 4.2
vtk output
ASCII
DATASET UNSTRUCTURED_GRID
FIELD FieldData 4
avtOriginalBounds 1 6 double
0 12.566399574 0 12.566399574 0 12.566399574 
MeshName 1 1 string
mesh

CYCLE 1 1 int
15 
TIME 1 1 double
15 
POINTS 64 float
0.897598 9.87358 0.897598 0.897598 10.7712 0.897598 0 9.87358 0.897598 
0.897598 9.87358 0 0.897598 10.7712 0 0 9.87358 0 
0 10.7712 0.897598 0 10.7712 0 1.7952 9.87358 0.897598 
1.7952 10.7712 0.897598 1.7952 9.87358 0 1.7952 10.7712 0 
2.69279 9.87358 0.897598 2.69279 10.7712 0.897598 2.69279 9.87358 0 
2.69279 10.7712 0 0.897598 11.6688 0.897598 0.897598 11.6688 0 
0 11.6688 0.897598 0 11.6688 0 1.7952 11.6688 0.897598 
1.7952 11.6688 0 2.69279 11.6688 0.897598 2.69279 11.6688 0 
0.897598 12.5664 0.897598 0.897598 12.5664 0 0 12.5664 0.897598 
0 12.5664 0 1.7952 12.5664 0.897598 1.7952 12.5664 0 
2.69279 12.5664 0.897598 2.69279 12.5664 0 0.897598 9.87358 1.7952 
0.897598 10.7712 1.7952 0 9.87358 1.7952 0 10.7712 1.7952 
1.7952 9.87358 1.7952 1.7952 10.7712 1.7952 2.69279 9.87358 1.7952 
2.69279 10.7712 1.7952 0.897598 11.6688 1.7952 0 11.6688 1.7952 
1.7952 11.6688 1.7952 2.69279 11.6688 1.7952 0.897598 12.5664 1.7952 
0 12.5664 1.7952 1.7952 12.5664 1.7952 2.69279 12.5664 1.7952 
0.897598 9.87358 2.69279 0.897598 10.7712 2.69279 0 9.87358 2.69279 
0 10.7712 2.69279 1.7952 9.87358 2.69279 1.7952 10.7712 2.69279 
2.69279 9.87358 2.69279 2.69279 10.7712 2.69279 0.897598 11.6688 2.69279 
0 11.6688 2.69279 1.7952 11.6688 2.69279 2.69279 11.6688 2.69279 
0.897598 12.5664 2.69279 0 12.5664 2.69279 1.7952 12.5664 2.69279 
2.69279 12.5664 2.69279 
CELLS 54 378
6 0 2 1 3 5 4
6 1 2 6 4 5 7
6 8 0 9 10 3 11
6 9 0 1 11 3 4
6 12 8 13 14 10 15
6 13 8 9 15 10 11
6 1 6 16 4 7 17
6 16 6 18 17 7 19
6 9 1 20 11 4 21
6 20 1 16 21 4 17
6 13 9 22 15 11 23
6 22 9 20 23 11 21
6 16 18 24 17 19 25
6 24 18 26 25 19 27
6 20 16 28 21 17 29
6 28 16 24 29 17 25
6 22 20 30 23 21 31
6 30 20 28 31 21 29
6 32 34 33 0 2 1
6 33 34 35 1 2 6
6 36 32 37 8 0 9
6 37 32 33 9 0 1
6 38 36 39 12 8 13
6 39 36 37 13 8 9
6 33 35 40 1 6 16
6 40 35 41 16 6 18
6 37 33 42 9 1 20
6 42 33 40 20 1 16
6 39 37 43 13 9 22
6 43 37 42 22 9 20
6 40 41 44 16 18 24
6 44 41 45 24 18 26
6 42 40 46 20 16 28
6 46 40 44 28 16 24
6 43 42 47 22 20 30
6 47 42 46 30 20 28
6 48 50 49 32 34 33
6 49 50 51 33 34 35
6 52 48 53 36 32 37
6 53 48 49 37 32 33
6 54 52 55 38 36 39
6 55 52 53 39 36 37
6 49 51 56 33 35 40
6 56 51 57 40 35 41
6 53 49 58 37 33 42
6 58 49 56 42 33 40
6 55 53 59 39 37 43
6 59 53 58 43 37 42
6 56 57 60 40 41 44
6 60 57 61 44 41 45
6 58 56 62 42 40 46
6 62 56 60 46 40 44
6 59 58 63 43 42 47
6 63 58 62 47 42 46

CELL_TYPES 54
13
13
13
13
13
13
13
13
13
13
13
13
13
13
13
13
13
13
13
13
13
13
13
13
13
13
13
13
13
13
13
13
13
13
13
13
13
13
13
13
13
13
13
13
13
13
13
13
13
13
13
13
13
13

POINT_DATA 64
FIELD FieldData 2
gyroid 1 64 float
-0.487464 -0.294367 0.511309 -1.13829 -1.1489 -0.433884 0.173974 -0.974928 -1.32288 
-0.998773 -1.31226 -1.19187 -1.36584 -1.40881 -0.8248 -1.07148 0.487464 -0.294368 
0.294368 -0.781832 -0.0535803 -0.173974 -0.921348 -0.51131 1.2693 0.781832 0.781832 
3.49691e-07 0.800954 0.974928 -0.270522 0.433884 6.0492e-08 0.650826 1.07148 1.19187 
-0.998773 -0.216941 -1.17275 -0.757986 1.2693 1.1489 0.56489 -0.433884 1.38969 
0.974928 0.757986 -0.444496 -0.0429679 0.974928 0.8248 1.31226 -0.584012 0.56489 
-0.390915 0.390916 1.46239 1.13829 1.21572 0.584012 1.05235 0.433883 0.878379 
0.0429676 
radial 1 64 float
10.2029 11.0738 10.1633 10.1633 11.0374 10.1236 11.0374 11.0008 10.3207 
11.1824 10.2815 11.1463 10.514 11.3611 10.4756 11.3256 11.9487 11.9149 
11.9149 11.8811 12.0494 12.0159 12.2154 12.1824 12.8267 12.7953 12.7953 
12.7638 12.9206 12.8894 13.0756 13.0447 10.3207 11.1824 10.2815 11.1463 
10.4371 11.29 10.6283 11.467 12.0494 12.0159 12.1493 12.314 12.9206 
12.8894 13.0138 13.1677 10.514 11.3611 10.4756 11.3256 10.6283 11.467 
10.8162 11.6413 12.2154 12.1824 12.314 12.4765 13.0756 13.0447 13.1677 
13.3198 
